[Molden Format]
made by pyscf v[1.3]
[Atoms] (AU)
O   1   8     0.00000000000000     0.00000000000000     0.22629092396442
H   2   1     0.00000000000000     1.43914171714989    -0.90516558558379
H   3   1     0.00000000000000    -1.43914171714989    -0.90516558558379
[GTO]
1 0
 s    8 1.00
                 15330  0.00052019830712555
                  2299  0.0040233447808982
                 522.4   0.020729083329021
                 147.3   0.081082327079741
                 47.55    0.23622635211786
                 16.76    0.44351820942048
                 6.207    0.35867058868857
                0.6882  -0.0083497972368145
 s    8 1.00
                 15330  -0.00019723601167594
                  2299  -0.0015350106995649
                 522.4  -0.007951183914171
                 147.3  -0.032113452892351
                 47.55   -0.10026964304879
                 16.76   -0.23404711183769
                 6.207   -0.30141092775591
                0.6882     1.0349196495085
 s    1 1.00
                 1.752                   1
 s    1 1.00
                0.2384                   1
 p    3 1.00
                 34.46   0.041163489568397
                 7.749    0.25776283585835
                  2.28    0.80241927442683
 p    1 1.00
                0.7156                   1
 p    1 1.00
                 0.214                   1
 d    1 1.00
                 2.314                   1
 d    1 1.00
                 0.645                   1
 f    1 1.00
                 1.428                   1

2 0
 s    3 1.00
                 33.87    0.02549486323468
                 5.095     0.1903627658927
                 1.159    0.85216202224527
 s    1 1.00
                0.3258                   1
 s    1 1.00
                0.1027                   1
 p    1 1.00
                 1.407                   1
 p    1 1.00
                 0.388                   1
 d    1 1.00
                 1.057                   1

3 0
 s    3 1.00
                 33.87    0.02549486323468
                 5.095     0.1903627658927
                 1.159    0.85216202224527
 s    1 1.00
                0.3258                   1
 s    1 1.00
                0.1027                   1
 p    1 1.00
                 1.407                   1
 p    1 1.00
                 0.388                   1
 d    1 1.00
                 1.057                   1

[5d]
[9g]

[MO]
 Sym= A
 Ene=               0
 Spin= Alpha
 Occup=    1.00000
   1     -0.55211608733077
   2     -0.93936783562397
   3      0.27715584543775
   4      -1.2037752184127
   5     0.051830633887534
   6     -0.12287472283169
   7    -0.028764875281033
   8     -0.25694793575734
   9      0.80188756911794
  10      0.32509621851266
  11     -0.17351179929478
  12      0.40766070217246
  13      0.16602763705578
  14    -0.005834830092382
  15    -0.0026108904678648
  16    -0.049359589417634
  17     0.016736607175721
  18    0.0068808370478959
  19      0.23842108825433
  20      0.12239346856399
  21    -0.067332076655059
  22      0.25088684239788
  23      0.27638200600189
  24    -0.034118450639991
  25     0.042336601325013
  26    -0.074792308277206
  27     0.026287539551422
  28    -0.060292208452019
  29      0.10215018375746
  30    -0.0091152102149196
  31    -0.0092857059211911
  32      0.10659721901936
  33    -0.025732271758925
  34    -0.012993025472486
  35     0.031352062721949
  36     0.024068946607971
  37    0.0027025517161451
  38    -0.041243600185798
  39     0.024112939174473
  40     0.011305750758814
  41    -0.0063476191669671
  42    -0.0059275686955527
  43    0.0097650618088921
  44    0.0087070409366716
  45     -0.37124251390126
  46        2.185658685761
  47       0.1013603698627
  48    -0.090769268324518
  49      0.15138042767715
  50    -0.0017926835069496
  51      0.80897960746149
  52      0.39567069981963
  53       1.3071997375378
  54      0.21009959060171
  55      0.61777089918864
  56      0.20139128211074
  57     0.042497703046941
  58     -0.13996107065894
 Sym= A
 Ene=               1
 Spin= Alpha
 Occup=    1.00000
   1       1.1475529148966
   2       2.0378866776069
   3     -0.47579674083968
   4       1.2490479712591
   5    0.0091761060256408
   6     0.076255610521236
   7      0.01695405209244
   8    -0.080401793331357
   9       -1.639103346302
  10      -1.1087770949883
  11    0.0082802622316602
  12     -0.43349879118874
  13     -0.29727050041518
  14    0.00056542114986287
  15     0.017253963190257
  16       0.2665834094946
  17      -0.1959298110453
  18     0.023773780744954
  19    -0.025665187793775
  20     0.045197358729663
  21      0.67246409712273
  22     -0.42809307841643
  23      0.05145414461016
  24       0.1315998581265
  25    -0.016640071652898
  26     -0.10312030614752
  27       0.2116130111641
  28     -0.04700248589297
  29     0.029829583172616
  30      0.12941363952322
  31     0.044912383650287
  32     0.088805376416024
  33     0.024835836650131
  34    0.00090588994094404
  35    -0.020518701531324
  36    -0.0062831567745857
  37    -0.0020381774340147
  38    -0.089614708732012
  39    0.0077058736563132
  40    -0.020650534304201
  41    -0.0039487617085453
  42     0.021591736537493
  43    -0.0014929375541249
  44     -0.00295088040983
  45      -1.0295652740205
  46      -2.4134504103142
  47    -0.030560566380072
  48      0.15757943322791
  49      -1.0615787969396
  50      -1.0446546965085
  51    -0.017144668453478
  52       -1.107149733973
  53     -0.81609178516348
  54     -0.21996377115423
  55      0.10493752244638
  56      -1.0285115694797
  57      0.52001353907508
  58      0.15939219585813
 Sym= A
 Ene=               2
 Spin= Alpha
 Occup=    1.00000
   1      -0.2195045874874
   2     -0.32125226314347
   3      0.24858990459936
   4        1.487324951259
   5      0.21596941980674
   6     0.040595131395794
   7      0.18434071776919
   8     -0.49897794628512
   9     0.076340420448066
  10     -0.57107631209776
  11      0.14277063788343
  12      0.11958447694179
  13     -0.59410748518651
  14    -0.064628661386219
  15     0.043323077814108
  16    -0.030543299857095
  17     0.018898254866053
  18      0.11761894764302
  19      0.44332900201778
  20     -0.28202070957694
  21     -0.29509439796377
  22     -0.43029925304561
  23     -0.69107157942943
  24       0.1877635360569
  25      0.28815565403277
  26      0.18796946632255
  27    -0.080142859280485
  28    -0.074604326930273
  29    -0.052750213288635
  30     -0.45146550624768
  31     -0.17499636325419
  32      -1.1318899770969
  33    -0.036827258770737
  34     0.079849923561315
  35      0.18527260212998
  36      -0.0914579982327
  37     0.081190643545409
  38      0.43827854501062
  39     -0.17416331490608
  40     0.034697939872702
  41      0.13278648926294
  42     0.054377497300069
  43      0.11476393480041
  44    -0.013460448431669
  45     0.071965786403489
  46     -0.65156682204495
  47    -0.016509794462373
  48    -0.090335921152726
  49     0.015947656993785
  50     0.032393431282269
  51      -0.2137937735412
  52      -0.2209634565774
  53    -0.051735865227399
  54     0.032560856166716
  55    -0.095649794571354
  56      0.02349566339025
  57    0.0036530048946891
  58     -0.11053953901165
 Sym= A
 Ene=               3
 Spin= Alpha
 Occup=    1.00000
   1      0.37881866058625
   2      0.64869622384872
   3     -0.18505401268643
   4      0.58986088493275
   5     0.069469697936891
   6     0.098081201742096
   7     0.077506777762834
   8     -0.30086558127082
   9     -0.77649034096571
  10     -0.49162249595198
  11     -0.21269818689182
  12      -0.3819060237794
  13      -0.1458951850474
  14    0.0049965323381125
  15    -0.00098167733810232
  16     0.057175605203013
  17    -0.034224159638259
  18    -0.011543348171246
  19      0.12865921839582
  20      0.24745044891499
  21       0.3480916346797
  22     0.092816616024868
  23      0.22234649900639
  24    -0.00072601992880461
  25    -0.072523492069563
  26    -0.080868494889694
  27    -0.040748961450842
  28      -0.0832288623911
  29     0.014413341531676
  30    -0.050634512575009
  31    -0.040240628116297
  32      0.76868878423123
  33      0.12363786047516
  34    0.0099072703214971
  35    -0.034683498238615
  36     0.075918986927338
  37     0.010736028291518
  38     -0.50078227797974
  39      0.12210354618768
  40    -0.010426520950093
  41    -0.00085328912378657
  42    -0.020058048257928
  43     -0.12171234900173
  44    0.0018667082104559
  45      0.42885000208688
  46      -2.1168263381221
  47     -0.27117055006682
  48     -0.23303200826436
  49    -0.0086639940469451
  50     -0.28218885190513
  51       1.0000240756395
  52      -1.3539856813951
  53    -0.038269553228059
  54      0.25359369136931
  55     -0.19262895514026
  56      -0.1839418543439
  57      0.10595958667884
  58      0.47535042576819
 Sym= A
 Ene=               4
 Spin= Alpha
 Occup=    1.00000
   1     -0.46162454423134
   2     -0.84702255632455
   3    0.0066500865363313
   4      -1.6572034889378
   5      0.02444989197062
   6     0.015758206509161
   7    -0.031680393186421
   8     -0.15867192714917
   9      0.68978556859043
  10      0.72535609576804
  11    -0.022994246665604
  12      0.62341543700909
  13       0.3644918224479
  14    -0.047194269730103
  15     0.018975744314075
  16    -0.089770349473859
  17      0.01784996580908
  18     0.024446926846585
  19     -0.18007903629306
  20      0.09872626365494
  21     -0.19086111076098
  22     -0.05823450327903
  23      0.11500927385406
  24     0.080905948195877
  25    -0.026200876578157
  26     0.072065220344895
  27     0.083716797075813
  28    -0.069999116139811
  29     0.052383130527457
  30     0.082813520646124
  31     0.047383819231296
  32     -0.27913504703059
  33     -0.17973667722788
  34    0.0014961228659839
  35    0.0011690360277333
  36    -0.036850318177371
  37    0.0030087074334833
  38       0.2300529049881
  39    -0.078682335140851
  40    -0.015532559807822
  41    -0.006477029313595
  42    0.0027730113439826
  43     0.075324709372679
  44    -0.0075078935889603
  45      0.15973174825204
  46       2.1040159901188
  47      0.62428035000185
  48    -0.028832427179988
  49     -0.62846543619205
  50     -0.37227322644397
  51     0.099761876779856
  52       1.7902742112387
  53       1.1208872339762
  54     -0.40943451451482
  55      0.21181311594185
  56      0.63710423741939
  57     -0.79450229975869
  58      0.31776897408234
 Sym= A
 Ene=               5
 Spin= Alpha
 Occup=    0.00000
   1     -0.64907754313179
   2      -1.0754531821824
   3      0.56402492287048
   4      -1.2182072273882
   5    -2.8591668843708e-06
   6    -1.3821981319932e-06
   7     -0.30394183502047
   8    1.4023460113059e-05
   9    6.7309324781215e-06
  10       1.3873645964697
  11    3.2974414230387e-06
  12    2.1456547767937e-06
  13      0.50452998808916
  14     -0.21204911714761
  15    -6.0075506623453e-06
  16    -1.2414608141081e-06
  17     0.022504029573859
  18    0.0089690414931453
  19     -0.90441133244407
  20    -1.594490787424e-05
  21    -4.8082538178152e-06
  22     0.070890028519269
  23     -0.01563210089757
  24      0.71374143055255
  25    2.599498940877e-05
  26    2.8419380292517e-06
  27     -0.22464580457201
  28     0.030256043088641
  29    -5.1891335939574e-06
  30    -1.0181581422365e-06
  31      0.21129524374509
  32      0.84521205475448
  33     0.021710753483061
  34    0.0027744480290365
  35     -0.32612929289681
  36    -0.057415503860551
  37    0.0079574981713524
  38     -0.42489021617231
  39    0.0014899953523973
  40     -0.20137980706468
  41    0.0029712907890616
  42     0.047989009196364
  43      -0.2204473877442
  44    -0.0050432504246903
  45      0.21129995013501
  46      0.84522153632057
  47     0.021711265568512
  48    -0.0027833143672186
  49      0.32613288741859
  50    -0.057413235022783
  51    -0.0079670582523281
  52      0.42489450667936
  53    0.0014921182711835
  54     -0.20138081955559
  55    -0.0029738775607159
  56    -0.047987957986495
  57     -0.22044867309216
  58    -0.0050550416509827
 Sym= A
 Ene=               6
 Spin= Alpha
 Occup=    0.00000
   1     -0.68804950177268
   2       -1.219751661641
   3      0.21180653171518
   4      -1.2188706927212
   5    -0.0013239980327297
   6     0.042622983925573
   7     -0.01241936922838
   8     0.004933609181691
   9     -0.85269382903386
  10      0.68323676107215
  11     0.013475296715176
  12     -0.46649525895644
  13      0.21656833715455
  14    -0.058207380501776
  15    0.0007184187737488
  16      0.11800844651448
  17     0.042782859626347
  18    -0.0026725616907422
  19      0.03649410999329
  20    -0.013123592475139
  21      0.27749045125555
  22      0.12982430767684
  23    -0.00075762099354251
  24     -0.02259583584011
  25    0.0088691163231283
  26    -0.075507848637532
  27    -0.0066482952240379
  28    -0.00037509630651757
  29    0.0017105380075759
  30    -0.046535564380391
  31     -0.45987832827588
  32       2.0982933853692
  33     0.096315215469025
  34     0.078984467622741
  35     -0.80205130321207
  36     -0.53401747595367
  37    -0.046710419453006
  38     -0.70965826082767
  39       1.1964852987284
  40     -0.21036920456102
  41     0.053276116343921
  42     -0.89625009785569
  43     -0.13943210500975
  44     0.041158106755809
  45    -0.050025105525372
  46     0.074514977408182
  47    -0.027833080736027
  48    -0.0018547786396712
  49    -0.028161306117967
  50     0.015597549005815
  51    -0.0035684803363017
  52     0.074828256925929
  53    -0.020289381541755
  54    -0.0022150184418652
  55    -0.0016980286861896
  56    0.0088322123431797
  57    -0.021423579250994
  58    -0.0017746188910148
 Sym= A
 Ene=               7
 Spin= Alpha
 Occup=    0.00000
   1      0.13496136934446
   2      0.16217105689251
   3     -0.25639768896553
   4      -1.1389293085581
   5     -0.28716044660002
   6      -0.0166302722554
   7       0.1245437620472
   8      0.77030146823867
   9     0.076412756769982
  10     -0.10514787443317
  11     0.064707587157099
  12     0.031441162586598
  13      0.31390010224901
  14    -0.089738537143473
  15     0.059743548975485
  16    -0.013582138996555
  17    -0.023187338631591
  18    0.0089382890806116
  19      0.27696341254719
  20     -0.74420100494285
  21    -0.059059418058281
  22      0.68899554605592
  23    0.0063177434985154
  24      0.12894223906528
  25      0.29804356166817
  26     0.050138426276257
  27     -0.52218763700537
  28    -0.019615101709044
  29      0.13469581813416
  30    0.00015754095170589
  31     0.050455641239629
  32      0.65231910130223
  33    0.0046343461969624
  34     -0.13458259354167
  35    0.0040146746810057
  36      0.16278067070759
  37     -0.18323683015502
  38     -0.14781829465991
  39      0.26348458399139
  40      0.15044627283331
  41    -0.036744092716255
  42    -0.092764229088195
  43    -0.0070770476036124
  44      0.19013821359167
  45      0.10063939347766
  46      0.78345145618278
  47     0.012524761364914
  48     -0.13204264868698
  49     0.042093408094426
  50      0.17724561732003
  51      -0.1755881104606
  52      0.20967572189381
  53      0.29673171576191
  54      0.12850568166441
  55     -0.03635206968793
  56      0.10495760791959
  57    -0.026539538733463
  58     -0.18727766553497
 Sym= A
 Ene=               8
 Spin= Alpha
 Occup=    0.00000
   1        1.504130339478
   2      0.55621576203053
   3     -0.69607186594405
   4      0.10715329043004
   5    2.715625429905e-07
   6    -1.4849990293171e-06
   7     0.072857942528834
   8    -3.5830017742296e-07
   9    3.2349507428448e-06
  10     -0.17076157804062
  11    -8.6258655083721e-08
  12    1.4132305816536e-06
  13    -0.021689338258905
  14     0.019221091717992
  15    -3.7217217187018e-07
  16    1.0445415418974e-06
  17    0.0084049403691081
  18    -0.0050320692446004
  19    -0.023115442592722
  20    4.7482539875948e-07
  21    -2.6635879565086e-06
  22    -0.094048710641261
  23    0.0028028038694184
  24     0.036173315190914
  25    -2.4281752077658e-07
  26    6.0608130787198e-07
  27     0.053021065960824
  28    0.0049542616851991
  29    2.9934275049952e-07
  30    -3.918365571847e-07
  31    -0.058145669271545
  32     -0.14241853655438
  33    0.0033879763091027
  34    0.0008211461825498
  35     0.043259283711236
  36    -0.043440442817702
  37    -0.00055027753275327
  38     0.051303872865871
  39    -0.059577169074333
  40    -0.010867871828686
  41    0.00033370778773184
  42     0.021113399798169
  43    0.0082100549740458
  44    -0.0011470922816679
  45    -0.058143690433603
  46     -0.14241338592038
  47    0.0033881385326456
  48    -0.00082089263943445
  49    -0.043257909834228
  50    -0.043439582923526
  51    0.00055056377728174
  52    -0.051301976247464
  53    -0.059575743421153
  54    -0.010868058835592
  55    -0.00033357302078819
  56    -0.021113049256218
  57    0.0082097757274004
  58    -0.0011467808968898
 Sym= A
 Ene=               9
 Spin= Alpha
 Occup=    0.00000
   1     -0.53632788978743
   2     -0.95953291680387
   3      0.14750089510476
   4      -1.0403047053487
   5    -0.0097438973041952
   6    -0.017501057601477
   7    -0.0073708923702802
   8    -0.0030415879600578
   9      0.80925604599588
  10      0.56150522465311
  11     0.092447748226057
  12      0.30437153376342
  13      0.25383892733392
  14    -0.010382977266214
  15     0.032353724004467
  16     -0.12068281273007
  17     0.066415514961873
  18     0.039797210403783
  19     -0.04029707637204
  20    -0.022213629600652
  21     -0.19225281358281
  22      0.19307004519593
  23    -0.018953415883352
  24      0.02760877448562
  25    -0.0092076919857487
  26     0.018531107414798
  27    -0.039065639984096
  28    -0.041910343337879
  29     0.032385097781567
  30    -0.059129575231192
  31     0.043716816268259
  32     -0.11785968302375
  33    -0.055370238100899
  34    0.00033990393778996
  35    -0.0021143553824541
  36    -0.015113682720413
  37    -0.010703786349915
  38      0.15693352579884
  39    -0.0058722503877015
  40    0.0049425641553259
  41    -0.0050202897720727
  42    -0.0058975600469743
  43     0.051672452494565
  44    -0.0036451661834652
  45     -0.44145309909054
  46       1.8385626643473
  47      0.16359993273739
  48      0.83432256773848
  49      0.19134125514023
  50      0.27706608262692
  51     -0.35365593138633
  52       1.0101299555263
  53      0.62068066860422
  54      0.34168961418109
  55    0.0075218172180037
  56       0.3902491578728
  57     -0.78572233899737
  58    -0.005113186842309
 Sym= A
 Ene=              10
 Spin= Alpha
 Occup=    0.00000
   1      0.15708460607736
   2      0.28919590116286
   3    -0.0040594804292224
   4      0.22016868236168
   5    0.0087936573833888
   6    -0.017420477517512
   7    -0.043605099674722
   8    -0.049419844848562
   9      0.35762946915071
  10     0.073149228756115
  11    -0.0025500126176274
  12      0.10361310760929
  13    0.00056637316109162
  14    -0.065695485412553
  15    0.0042448802055619
  16    0.00053842105249104
  17    -0.058893078366062
  18    -0.0058639796370561
  19      -0.2993102958549
  20     0.036743301670678
  21    -0.087358928727171
  22     -0.12706463043612
  23    -0.028257528005246
  24      0.17848082531523
  25    -0.014501125191617
  26     -0.11214952578352
  27     0.032224425027786
  28     0.021617473424963
  29    0.0096714494777943
  30    -0.020349954534908
  31      0.35037183793632
  32     -0.44373819823607
  33      -0.0887851742838
  34     0.066366326496579
  35      -0.4934544748456
  36     -0.64632098750096
  37     0.014245675787314
  38      0.22913384582195
  39     -0.17627752290276
  40     -0.17770450277782
  41    0.0075991605993328
  42      0.72436661723998
  43     -0.44878047585219
  44      -0.1291097193459
  45     0.037642580569886
  46     0.033017825598921
  47      0.03773543970849
  48    0.0027480433243203
  49     0.038327453089187
  50    -0.031109816101976
  51    0.00040603624786133
  52     0.041557534529606
  53    -0.047161336621615
  54    -0.034310534316828
  55    -0.0013332676791177
  56    -0.027070255264646
  57    -0.012796644702288
  58    0.0031626162374851
 Sym= A
 Ene=              11
 Spin= Alpha
 Occup=    0.00000
   1      0.17509401718933
   2      0.30571208578168
   3    -0.090382472791538
   4      0.39284526710936
   5     0.070853598323514
   6    -0.026215223675791
   7     0.021333379395117
   8     -0.46866345307341
   9      0.29052067370526
  10     -0.20838393121464
  11    -0.069571528270229
  12      0.13123747801981
  13    -0.087343193316931
  14    0.0046293814420875
  15      0.05853874419495
  16    -0.041560674708573
  17    -0.023442922691192
  18    -0.072210032404533
  19     0.025015657885393
  20        0.275598103085
  21    -0.092089476548954
  22    -0.070578083479067
  23     -0.34997224009356
  24    -0.010714134325768
  25    -0.063805855567919
  26     0.015673907756834
  27      0.02255592308193
  28      0.20166906095357
  29      0.15255122235944
  30    -0.026098275008075
  31      0.14481821893745
  32     -0.45442587746536
  33     -0.14763540198022
  34     -0.19215632020779
  35      0.27186307088119
  36     -0.29308936220373
  37      0.33046326235317
  38      0.43093189396159
  39     -0.23901968752196
  40    -0.090737850450223
  41      0.71299042391912
  42    -0.068793593334705
  43      0.16602567907036
  44     -0.89974364638573
  45    -0.016523996914709
  46     0.072971612900817
  47      0.04122360655674
  48    0.0025908178402622
  49    -0.002621345731646
  50    0.0095526634764141
  51    0.00086632874768302
  52     0.074045933220243
  53    0.0079992982130266
  54     -0.00163098739174
  55    -0.018493010753724
  56    0.0015011286928557
  57    -0.019979941047034
  58      0.01577926449494
 Sym= A
 Ene=              12
 Spin= Alpha
 Occup=    0.00000
   1      -0.3669397771071
   2     -0.73136295162109
   3     0.081898537145578
   4     -0.63330783618813
   5      0.21219560386162
   6     0.028184374690204
   7      0.16400246534481
   8     0.056861099714647
   9     -0.88384952936613
  10      0.40299440755254
  11    -0.0032787955751499
  12     -0.27695663272004
  13      0.14245135648666
  14    -0.083061140382743
  15     -0.34792369834494
  16      0.33282832941026
  17      0.01773934948736
  18      0.30821789235811
  19      0.17371640120626
  20     0.039109384709422
  21      0.57552718660508
  22        0.404204001572
  23      0.14608818860106
  24      -0.3059292752734
  25     0.078830247275477
  26     -0.39504921527521
  27     -0.21946539142629
  28     -0.53937869189791
  29     -0.28896219937601
  30      0.03026385376649
  31      0.47572492835211
  32        1.129328126523
  33    -0.0025501208799459
  34     -0.16137853726457
  35     -0.36153224693261
  36      0.30005824855998
  37    -0.046907297276406
  38     -0.39606733485968
  39      0.36530754675944
  40     0.015352956976788
  41      -0.1132908790416
  42     -0.18006268366273
  43     -0.09029508930743
  44      0.12690553450909
  45    -0.099357767960241
  46     -0.12398437215308
  47    -0.015009022258818
  48     0.065109123648255
  49     -0.13630682545874
  50     0.072167466234029
  51     0.045817981415952
  52     -0.12052570716598
  53     0.025399678202575
  54      0.13768265343952
  55     0.030127869269733
  56     0.026115270073476
  57     0.078350631185652
  58     0.070492664715389
 Sym= A
 Ene=              13
 Spin= Alpha
 Occup=    0.00000
   1      0.35121366175967
   2      0.60080015311313
   3     -0.17931477389275
   4      0.56564751939728
   5    -0.063491896563804
   6     0.088419594820146
   7     0.086922877250273
   8      0.26397780979799
   9     -0.72646822126933
  10     -0.50182397816171
  11      0.19627073107495
  12     -0.32242925506366
  13     -0.17268253552219
  14    -0.0043898491480035
  15    0.0063288701718711
  16      0.05511199425869
  17    -0.037569061837672
  18     0.017216131878505
  19      0.17476554099623
  20     -0.23168445958423
  21      0.33400710444621
  22     0.090168302115056
  23     -0.18883482457745
  24     -0.01377518161422
  25     0.073389345884312
  26    -0.076865855715773
  27    -0.030857265525054
  28     0.070894062759883
  29    -0.003278221255942
  30    -0.031204142844049
  31    -0.052860235635609
  32      0.73410158452904
  33      0.11304523248672
  34    -0.0090316912991752
  35    -0.022436518650101
  36     0.079678983444333
  37     -0.01763679581078
  38      -0.5004208900016
  39      0.11088626953517
  40    -0.0030830496990321
  41    0.0031468056330422
  42    -0.016784399362028
  43     -0.12263113397876
  44    0.0030924551266809
  45      0.43101428363862
  46      -2.0524437249848
  47     -0.24961337701167
  48      0.22581474462613
  49    -0.00056443242548193
  50     -0.32602673204364
  51     -0.89633458207734
  52       -1.361141327159
  53      0.13432157649523
  54      0.17108282294554
  55      0.24506503758672
  56     -0.10744785895651
  57      0.20577356947872
  58     -0.45731897249826
 Sym= A
 Ene=              14
 Spin= Alpha
 Occup=    0.00000
   1      -1.1475536265901
   2      -2.0378880749286
   3      0.47579654727777
   4       -1.249048423127
   5    0.0091756530859453
   6      0.07625497141774
   7    -0.016953711950411
   8    -0.080398767373507
   9      -1.6391034516966
  10       1.1087776895784
  11    0.0082800153255729
  12     -0.43349891513641
  13      0.29727048214851
  14    -0.00056539645527699
  15     0.017253605432622
  16      0.26658413407887
  17      0.19592990812128
  18    -0.023773002248751
  19     0.025665327174563
  20     0.045195505654519
  21      0.67246387304298
  22      0.42809307494667
  23     -0.05145238550388
  24     -0.13159996562656
  25    -0.016639735045195
  26     -0.10312073208301
  27     -0.21161320761881
  28     0.047000509878986
  29     0.029828213150729
  30      0.12941327092831
  31       1.0295650790783
  32       2.4134514474804
  33      0.03056096535201
  34      0.15757375641951
  35      -1.0615794528104
  36       1.0446555851705
  37     -0.01714457088893
  38      -1.1071502515617
  39      0.81609194591685
  40      0.21996349271615
  41      0.10493450091896
  42      -1.0285141771594
  43     -0.52001325741637
  44     -0.15938621227672
  45    -0.044912232873232
  46    -0.088805084129163
  47    -0.024836037008172
  48    0.00090580424472977
  49    -0.020518656299852
  50    0.0062833395114098
  51    -0.0020381096119032
  52    -0.089614689228634
  53    -0.0077057264808408
  54     0.020650661852969
  55    -0.0039488395709858
  56     0.021591802395207
  57    0.0014929320442461
  58    0.0029508031627542
 Sym= A
 Ene=              15
 Spin= Alpha
 Occup=    0.00000
   1     -0.11630758880874
   2    -0.0050729847334637
   3      0.37012316586031
   4     -0.79210074260696
   5     0.092758126685962
   6      0.11313259326697
   7      0.41972514310248
   8     0.060480674520384
   9     -0.96121001960284
  10      0.12756558926011
  11     0.049439359451977
  12     -0.57502635757077
  13      0.39673398541909
  14      0.53362784636712
  15      0.26695843484779
  16     -0.60236317213728
  17    -0.065958699532466
  18     -0.19875825139648
  19     -0.47192119528942
  20     -0.22266637287595
  21       1.0335543721804
  22    0.0001336804798103
  23      0.20139067936789
  24      0.13939917871307
  25     0.033694705997982
  26     -0.58059833840303
  27    -0.035025374536544
  28     -0.14302778346665
  29    -0.091622856825282
  30     0.010621110125004
  31      0.34228531352283
  32       1.4020322425701
  33     0.085092205622731
  34     -0.08377541753856
  35     -0.35028657075643
  36     0.039437014411542
  37     -0.11181832883405
  38     -0.58470142755698
  39       0.2239468574951
  40     -0.19508623090635
  41    -0.068824798140096
  42     -0.03228446453821
  43     -0.15745063935133
  44     0.097914586976412
  45     -0.36948463344098
  46     -0.54306123132226
  47    -0.013729090691116
  48       0.0125021299685
  49     -0.25303868508736
  50     -0.14164481806557
  51    -0.011072875868499
  52     -0.16983313532463
  53      -0.2663993110303
  54     0.038284077693052
  55      0.02452677801043
  56    -0.090455883297259
  57     0.027929343010264
  58    -0.014692048318666
 Sym= A
 Ene=              16
 Spin= Alpha
 Occup=    0.00000
   1      0.37882448715246
   2       0.6487063917706
   3     -0.18505614277298
   4      0.58986613960693
   5    -0.069470767730341
   6      -0.0980822409513
   7     0.077505993999381
   8      0.30087016723857
   9      0.77649883475341
  10     -0.49162296293532
  11        0.212701037117
  12      0.38191210537431
  13     -0.14589290106955
  14    0.0049969008927437
  15    0.00098163952924615
  16    -0.057176356742249
  17    -0.034224102920762
  18    -0.011543347642873
  19      0.12865311770813
  20     -0.24745259518898
  21     -0.34809324631867
  22     0.092813944735418
  23      0.22235115448281
  24    -0.00072379276773504
  25     0.072523280366062
  26     0.080867692375867
  27     -0.04074915618716
  28    -0.083229720975978
  29    -0.014414992995978
  30     0.050635221569053
  31      0.42885113115693
  32      -2.1168393215775
  33     -0.27117131462957
  34      0.23303802222714
  35    0.0086663255646515
  36     -0.28218740760332
  37      -1.0000395069745
  38       1.3539818142709
  39    -0.038289376093847
  40      0.25359809193569
  41      0.19261958561384
  42      0.18395376599275
  43      0.10594901218254
  44       0.4753479573164
  45    -0.040239428006713
  46      0.76868924388037
  47      0.12363854733593
  48    -0.0099072116720188
  49     0.034684564052675
  50     0.075918125539869